DF-ISE text

Info {
  version   = 1.0
  type      = xyplot
  datasets  = [
    "time" "v(A)" "i(A,B)" ]
  functions = [
    Time Voltage Current ]
}

Data {
      0.00000000000000E+00   0.00000000000000E+00   0.00000000000000E+00
      0.00000000000000E+00   6.27745783673181E-09   0.00000000000000E+00
      0.00000000000000E+00   6.27745783673181E-09   0.00000000000000E+00
      0.00000000000000E+00   6.27745783673181E-09   0.00000000000000E+00
      5.00000000000000E-12   4.82562051470284E-01   0.00000000000000E+00
      1.10000000000000E-11   1.06084870543944E+00   0.00000000000000E+00
      1.82000000000000E-11   1.34247432470660E+00   0.00000000000000E+00
      2.68400000000000E-11   1.62144017974116E+00   0.00000000000000E+00
      3.72080000000000E-11   1.92089640289037E+00   0.00000000000000E+00
      4.96496000000000E-11   2.19950846344241E+00   0.00000000000000E+00
      6.45795200000000E-11   2.40950668067027E+00   0.00000000000000E+00
      8.24954240000000E-11   2.53252643597124E+00   0.00000000000000E+00
      1.03994508800000E-10   2.57483675153028E+00   0.00000000000000E+00
      1.29793410560000E-10   2.55113428801649E+00   0.00000000000000E+00
      1.60752092672000E-10   2.47973343038335E+00   0.00000000000000E+00
      1.97902511206400E-10   2.38127934908920E+00   0.00000000000000E+00
      2.42483013447680E-10   2.27442333863168E+00   0.00000000000000E+00
      2.95979616137216E-10   2.17294360034553E+00   0.00000000000000E+00
      3.60175539364659E-10   2.08531566205087E+00   0.00000000000000E+00
      4.37210647237591E-10   2.01559553127711E+00   0.00000000000000E+00
      5.29652776685109E-10   1.96468463475510E+00   0.00000000000000E+00
      6.40583332022131E-10   1.93158587384131E+00   0.00000000000000E+00
      7.73699998426557E-10   1.91445491997602E+00   0.00000000000000E+00
      9.33439998111868E-10   1.91135329418878E+00   0.00000000000000E+00
      1.12512799773424E-09   1.92071136074390E+00   0.00000000000000E+00
      1.35515359728109E-09   1.94158770970591E+00   0.00000000000000E+00
      1.63118431673731E-09   1.97380038222219E+00   0.00000000000000E+00
      1.96242118008477E-09   2.01799881347966E+00   0.00000000000000E+00
      2.00000000000000E-09   2.02288096456701E+00   0.00000000000000E+00
      2.39748423601695E-09   2.08122015088131E+00   0.00000000000000E+00
      2.87446531923730E-09   2.15576969339526E+00   0.00000000000000E+00
      3.44684261910171E-09   2.25113114493890E+00   0.00000000000000E+00
      4.00000000000000E-09   2.34920888232182E+00   0.00000000000000E+00
      4.82422331180476E-09   2.51145748410657E+00   0.00000000000000E+00
      5.81329128597046E-09   2.73776036164971E+00   0.00000000000000E+00
      6.00000000000000E-09   2.78272123443714E+00   0.00000000000000E+00
      7.18688156899885E-09   3.14460496573560E+00   0.00000000000000E+00
      8.00000000000000E-09   3.46461053429655E+00   0.00000000000000E+00
      9.70910945935834E-09   4.87937564662262E+00   0.00000000000000E+00
      1.00000000000000E-08   5.15057343563162E+00   0.00000000000000E+00
      1.10000000000000E-08   5.03389450276272E+00   0.00000000000000E+00
}
