DF-ISE text

Info {
  version   = 1.0
  type      = xyplot
  datasets  = [
    "time" "v(A)" "i(A,B)" ]
  functions = [
    Time Voltage Current ]
}

Data {
      0.00000000000000E+00   0.00000000000000E+00   0.00000000000000E+00
      0.00000000000000E+00   6.27745782285140E-09   0.00000000000000E+00
      0.00000000000000E+00   6.27745782285140E-09   0.00000000000000E+00
      0.00000000000000E+00   6.27745782285140E-09   0.00000000000000E+00
      5.00000000000000E-12   5.41357042208590E-02   0.00000000000000E+00
      1.10000000000000E-11   1.74723048559322E-01   0.00000000000000E+00
      1.82000000000000E-11   3.69319783658205E-01   0.00000000000000E+00
      2.68400000000000E-11   6.10919578443649E-01   0.00000000000000E+00
      3.72080000000000E-11   8.41880750879114E-01   0.00000000000000E+00
      4.96496000000000E-11   9.30800596254511E-01   0.00000000000000E+00
      6.45795200000000E-11   9.89181466909937E-01   0.00000000000000E+00
      8.24954240000000E-11   1.04430586852038E+00   0.00000000000000E+00
      1.03994508800000E-10   1.09835679045263E+00   0.00000000000000E+00
      1.29793410560000E-10   1.14867246088249E+00   0.00000000000000E+00
      1.60752092672000E-10   1.19158263039364E+00   0.00000000000000E+00
      1.97902511206400E-10   1.22475784583194E+00   0.00000000000000E+00
      2.42483013447680E-10   1.24755760956529E+00   0.00000000000000E+00
      2.95979616137216E-10   1.26058475971678E+00   0.00000000000000E+00
      3.60175539364659E-10   1.26535942625412E+00   0.00000000000000E+00
      4.37210647237591E-10   1.26412062579258E+00   0.00000000000000E+00
      5.29652776685109E-10   1.25942556006099E+00   0.00000000000000E+00
      6.40583332022131E-10   1.25363045160175E+00   0.00000000000000E+00
      7.73699998426557E-10   1.24859459445933E+00   0.00000000000000E+00
      9.33439998111868E-10   1.24560264037184E+00   0.00000000000000E+00
      1.12512799773424E-09   1.24540548690565E+00   0.00000000000000E+00
      1.35515359728109E-09   1.24834133232932E+00   0.00000000000000E+00
      1.63118431673731E-09   1.25449062314961E+00   0.00000000000000E+00
      1.96242118008477E-09   1.26381115371047E+00   0.00000000000000E+00
      2.00000000000000E-09   1.26484320072025E+00   0.00000000000000E+00
      2.39748423601695E-09   1.27739184016808E+00   0.00000000000000E+00
      2.87446531923730E-09   1.29291918208938E+00   0.00000000000000E+00
      3.44684261910171E-09   1.31148758740038E+00   0.00000000000000E+00
      4.00000000000000E-09   1.32894095132621E+00   0.00000000000000E+00
      4.82422331180476E-09   1.35434951088319E+00   0.00000000000000E+00
      5.81329128597046E-09   1.38345956689880E+00   0.00000000000000E+00
      6.00000000000000E-09   1.38859176272856E+00   0.00000000000000E+00
      7.18688156899885E-09   1.42177852441770E+00   0.00000000000000E+00
      8.00000000000000E-09   1.44344839236981E+00   0.00000000000000E+00
      9.70910945935834E-09   1.48808893460461E+00   0.00000000000000E+00
      1.00000000000000E-08   1.49526135405788E+00   0.00000000000000E+00
      1.20000000000000E-08   1.47118211780498E+00   0.00000000000000E+00
      1.40000000000000E-08   1.45699435987953E+00   0.00000000000000E+00
      1.60000000000000E-08   1.44670891674890E+00   0.00000000000000E+00
      1.80000000000000E-08   1.43844870559842E+00   0.00000000000000E+00
      2.00000000000000E-08   1.43140571848960E+00   0.00000000000000E+00
      2.42528112499105E-08   1.41913287935625E+00   0.00000000000000E+00
      2.93561847498032E-08   1.40652089025892E+00   0.00000000000000E+00
      3.54802329496744E-08   1.39306479422234E+00   0.00000000000000E+00
      4.28290907895198E-08   1.37826349404453E+00   0.00000000000000E+00
      5.00000000000000E-08   1.36455161885137E+00   0.00000000000000E+00
      6.05823552893774E-08   1.35116734410582E+00   0.00000000000000E+00
      7.32811816366303E-08   1.33538545657556E+00   0.00000000000000E+00
      8.85197732533338E-08   1.31655410333055E+00   0.00000000000000E+00
      1.06806083193378E-07   1.29358157451127E+00   0.00000000000000E+00
      1.28749655121431E-07   1.26484097718498E+00   0.00000000000000E+00
      1.50000000000000E-07   1.23510695516805E+00   0.00000000000000E+00
      1.81598743576396E-07   1.22175575371477E+00   0.00000000000000E+00
      2.19517235868072E-07   1.20357483989381E+00   0.00000000000000E+00
      2.65019426618083E-07   1.17971274658272E+00   0.00000000000000E+00
      3.19622055518095E-07   1.14746400430839E+00   0.00000000000000E+00
      3.85145210198111E-07   1.10017992326968E+00   0.00000000000000E+00
      4.50000000000000E-07   1.03084024158326E+00   0.00000000000000E+00
}
