DF-ISE text

Info {
  version   = 1.0
  type      = xyplot
  datasets  = [
    "time" "v(A)" "i(A,B)" ]
  functions = [
    Time Voltage Current ]
}

Data {
      0.00000000000000E+00   0.00000000000000E+00   0.00000000000000E+00
      0.00000000000000E+00   6.27745781133719E-09   0.00000000000000E+00
      0.00000000000000E+00   6.27745781133719E-09   0.00000000000000E+00
      0.00000000000000E+00   6.27745781133719E-09   0.00000000000000E+00
      5.00000000000000E-12   2.71587294445077E-02   0.00000000000000E+00
      1.10000000000000E-11   8.90134269843453E-02   0.00000000000000E+00
      1.82000000000000E-11   1.99935937522036E-01   0.00000000000000E+00
      2.68400000000000E-11   3.62504084407220E-01   0.00000000000000E+00
      3.72080000000000E-11   5.62078918284315E-01   0.00000000000000E+00
      4.96496000000000E-11   7.73424879418347E-01   0.00000000000000E+00
      6.45795200000000E-11   8.70285325483010E-01   0.00000000000000E+00
      8.24954240000000E-11   9.17330030231448E-01   0.00000000000000E+00
      1.03994508800000E-10   9.57264807141758E-01   0.00000000000000E+00
      1.29793410560000E-10   9.95486362071580E-01   0.00000000000000E+00
      1.60752092672000E-10   1.03187518145512E+00   0.00000000000000E+00
      1.97902511206400E-10   1.06494052105683E+00   0.00000000000000E+00
      2.42483013447680E-10   1.09326667640911E+00   0.00000000000000E+00
      2.95979616137216E-10   1.11598822639051E+00   0.00000000000000E+00
      3.60175539364659E-10   1.13282415307000E+00   0.00000000000000E+00
      4.37210647237591E-10   1.14401982163221E+00   0.00000000000000E+00
      5.29652776685109E-10   1.15036731752339E+00   0.00000000000000E+00
      6.40583332022131E-10   1.15317339700877E+00   0.00000000000000E+00
      7.73699998426557E-10   1.15401567369593E+00   0.00000000000000E+00
      9.33439998111868E-10   1.15439081138312E+00   0.00000000000000E+00
      1.12512799773424E-09   1.15547402058536E+00   0.00000000000000E+00
      1.35515359728109E-09   1.15804144023386E+00   0.00000000000000E+00
      1.63118431673731E-09   1.16251486009231E+00   0.00000000000000E+00
      1.96242118008477E-09   1.16907010736588E+00   0.00000000000000E+00
      2.00000000000000E-09   1.16981166880558E+00   0.00000000000000E+00
      2.39748423601695E-09   1.17856861252322E+00   0.00000000000000E+00
      2.87446531923730E-09   1.18937921031798E+00   0.00000000000000E+00
      3.44684261910171E-09   1.20225349250675E+00   0.00000000000000E+00
      4.00000000000000E-09   1.21428225182959E+00   0.00000000000000E+00
      4.82422331180476E-09   1.23162545057152E+00   0.00000000000000E+00
      5.81329128597046E-09   1.25122947744733E+00   0.00000000000000E+00
      6.00000000000000E-09   1.25465585122414E+00   0.00000000000000E+00
      7.18688156899885E-09   1.27656582906761E+00   0.00000000000000E+00
      8.00000000000000E-09   1.29064761663713E+00   0.00000000000000E+00
      9.70910945935834E-09   1.31907884237116E+00   0.00000000000000E+00
      1.00000000000000E-08   1.32357161218957E+00   0.00000000000000E+00
      1.20000000000000E-08   1.30675757860855E+00   0.00000000000000E+00
      1.40000000000000E-08   1.29690425521367E+00   0.00000000000000E+00
      1.60000000000000E-08   1.28978067622749E+00   0.00000000000000E+00
      1.80000000000000E-08   1.28406711479938E+00   0.00000000000000E+00
      2.00000000000000E-08   1.27920001155827E+00   0.00000000000000E+00
      2.42528112499105E-08   1.27074422720047E+00   0.00000000000000E+00
      2.93561847498032E-08   1.26208310305224E+00   0.00000000000000E+00
      3.54802329496744E-08   1.25287854620152E+00   0.00000000000000E+00
      4.28290907895198E-08   1.24279665562798E+00   0.00000000000000E+00
      5.00000000000000E-08   1.23348168313464E+00   0.00000000000000E+00
      6.05823552893774E-08   1.22436871352870E+00   0.00000000000000E+00
      7.32811816366303E-08   1.21365545347907E+00   0.00000000000000E+00
      8.85197732533338E-08   1.20086884234112E+00   0.00000000000000E+00
      1.06806083193378E-07   1.18518844612652E+00   0.00000000000000E+00
      1.28749655121431E-07   1.16535007582229E+00   0.00000000000000E+00
      1.50000000000000E-07   1.14449662165852E+00   0.00000000000000E+00
      1.81598743576396E-07   1.13511148050041E+00   0.00000000000000E+00
      2.19517235868072E-07   1.12211848459367E+00   0.00000000000000E+00
      2.65019426618083E-07   1.10477986881959E+00   0.00000000000000E+00
      3.19622055518095E-07   1.08088486525488E+00   0.00000000000000E+00
      3.85145210198111E-07   1.04488659576218E+00   0.00000000000000E+00
      4.50000000000000E-07   9.89881255554034E-01   0.00000000000000E+00
}
