DF-ISE text

Info {
  version   = 1.0
  type      = xyplot
  datasets  = [
    "time" "v(A)" "i(A,B)" ]
  functions = [
    Time Voltage Current ]
}

Data {
      0.00000000000000E+00   0.00000000000000E+00   0.00000000000000E+00
      0.00000000000000E+00   6.27745784619662E-09   0.00000000000000E+00
      0.00000000000000E+00   6.27745784619662E-09   0.00000000000000E+00
      0.00000000000000E+00   6.27745784619662E-09   0.00000000000000E+00
      5.00000000000000E-12   1.07274936180234E-01   0.00000000000000E+00
      1.10000000000000E-11   3.30468241887844E-01   0.00000000000000E+00
      1.82000000000000E-11   6.28856370756766E-01   0.00000000000000E+00
      2.68400000000000E-11   9.00934118652153E-01   0.00000000000000E+00
      3.72080000000000E-11   1.00757893828865E+00   0.00000000000000E+00
      4.96496000000000E-11   1.09080896152303E+00   0.00000000000000E+00
      6.45795200000000E-11   1.17364818115993E+00   0.00000000000000E+00
      8.24954240000000E-11   1.25481409245890E+00   0.00000000000000E+00
      1.03994508800000E-10   1.32695516666764E+00   0.00000000000000E+00
      1.29793410560000E-10   1.38284643731332E+00   0.00000000000000E+00
      1.60752092672000E-10   1.41953260920270E+00   0.00000000000000E+00
      1.97902511206400E-10   1.43800860882014E+00   0.00000000000000E+00
      2.42483013447680E-10   1.44163030785651E+00   0.00000000000000E+00
      2.95979616137216E-10   1.43478732982919E+00   0.00000000000000E+00
      3.60175539364659E-10   1.42189571858461E+00   0.00000000000000E+00
      4.37210647237591E-10   1.40671374601416E+00   0.00000000000000E+00
      5.29652776685109E-10   1.39210362419103E+00   0.00000000000000E+00
      6.40583332022131E-10   1.38005342780779E+00   0.00000000000000E+00
      7.73699998426557E-10   1.37174544213287E+00   0.00000000000000E+00
      9.33439998111868E-10   1.36769395588174E+00   0.00000000000000E+00
      1.12512799773424E-09   1.36796242266324E+00   0.00000000000000E+00
      1.35515359728109E-09   1.37238946264612E+00   0.00000000000000E+00
      1.63118431673731E-09   1.38076448341847E+00   0.00000000000000E+00
      1.96242118008477E-09   1.39293562625930E+00   0.00000000000000E+00
      2.00000000000000E-09   1.39427064936445E+00   0.00000000000000E+00
      2.39748423601695E-09   1.41034282266142E+00   0.00000000000000E+00
      2.87446531923730E-09   1.43014119472571E+00   0.00000000000000E+00
      3.44684261910171E-09   1.45389180011568E+00   0.00000000000000E+00
      4.00000000000000E-09   1.47636676400807E+00   0.00000000000000E+00
      4.82422331180476E-09   1.50939870805393E+00   0.00000000000000E+00
      5.81329128597046E-09   1.54772201926197E+00   0.00000000000000E+00
      6.00000000000000E-09   1.55452801073079E+00   0.00000000000000E+00
      7.18688156899885E-09   1.59896709327150E+00   0.00000000000000E+00
      8.00000000000000E-09   1.62835822837566E+00   0.00000000000000E+00
      9.70910945935834E-09   1.68994719026669E+00   0.00000000000000E+00
      1.00000000000000E-08   1.69997417829579E+00   0.00000000000000E+00
      1.20000000000000E-08   1.66392765194790E+00   0.00000000000000E+00
      1.40000000000000E-08   1.64303968047214E+00   0.00000000000000E+00
      1.60000000000000E-08   1.62819465221091E+00   0.00000000000000E+00
      1.80000000000000E-08   1.61644744014846E+00   0.00000000000000E+00
      2.00000000000000E-08   1.60653317750433E+00   0.00000000000000E+00
      2.42528112499105E-08   1.58943043688289E+00   0.00000000000000E+00
      2.93561847498032E-08   1.57197501582514E+00   0.00000000000000E+00
      3.54802329496744E-08   1.55340210731460E+00   0.00000000000000E+00
      4.28290907895198E-08   1.53299366748311E+00   0.00000000000000E+00
      5.00000000000000E-08   1.51411127339448E+00   0.00000000000000E+00
      6.05823552893774E-08   1.49574147891982E+00   0.00000000000000E+00
      7.32811816366303E-08   1.47412071673417E+00   0.00000000000000E+00
      8.85197732533338E-08   1.44844378320757E+00   0.00000000000000E+00
      1.06806083193378E-07   1.41733635580791E+00   0.00000000000000E+00
      1.28749655121431E-07   1.37876514216539E+00   0.00000000000000E+00
      1.50000000000000E-07   1.33924084483814E+00   0.00000000000000E+00
      1.81598743576396E-07   1.32175593962768E+00   0.00000000000000E+00
      2.19517235868072E-07   1.29789741573146E+00   0.00000000000000E+00
      2.65019426618083E-07   1.26673552743710E+00   0.00000000000000E+00
      3.19622055518095E-07   1.22489694363560E+00   0.00000000000000E+00
      3.85145210198111E-07   1.16409170706580E+00   0.00000000000000E+00
      4.50000000000000E-07   1.07604815726975E+00   0.00000000000000E+00
}
