DF-ISE text

Info {
  version   = 1.0
  type      = xyplot
  datasets  = [
    "time" "v(A)" "i(A,B)" ]
  functions = [
    Time Voltage Current ]
}

Data {
      0.00000000000000E+00   0.00000000000000E+00   0.00000000000000E+00
      0.00000000000000E+00   0.00000000000000E+00   0.00000000000000E+00
      0.00000000000000E+00   0.00000000000000E+00   0.00000000000000E+00
      0.00000000000000E+00   0.00000000000000E+00   0.00000000000000E+00
      5.00000000000000E-12   2.60556427817377E-01   0.00000000000000E+00
      8.00000000000000E-12   4.52961349625182E-01   0.00000000000000E+00
      1.16000000000000E-11   6.95909527881163E-01   0.00000000000000E+00
      1.59200000000000E-11   9.52205627146616E-01   0.00000000000000E+00
      1.85120000000000E-11   1.03605555535430E+00   0.00000000000000E+00
      2.16224000000000E-11   1.10252543675943E+00   0.00000000000000E+00
      2.53548800000000E-11   1.16951835597733E+00   0.00000000000000E+00
      2.98338560000000E-11   1.24317673631337E+00   0.00000000000000E+00
      3.52086272000000E-11   1.32615715170700E+00   0.00000000000000E+00
      4.16583526400000E-11   1.41943423489587E+00   0.00000000000000E+00
      4.93980231680000E-11   1.52142489266194E+00   0.00000000000000E+00
      5.86856278016000E-11   1.62629506662901E+00   0.00000000000000E+00
      6.98307533619200E-11   1.72421763289950E+00   0.00000000000000E+00
      8.32049040343040E-11   1.80517910684017E+00   0.00000000000000E+00
      9.92538848411648E-11   1.86286906821657E+00   0.00000000000000E+00
      1.18512661809398E-10   1.89534938365411E+00   0.00000000000000E+00
      1.41623194171277E-10   1.90370643590413E+00   0.00000000000000E+00
      1.69355833005533E-10   1.89102761250694E+00   0.00000000000000E+00
      2.02634999606639E-10   1.86213346595574E+00   0.00000000000000E+00
      2.42569999527967E-10   1.82280043492008E+00   0.00000000000000E+00
      2.90491999433560E-10   1.77867390628020E+00   0.00000000000000E+00
      3.47998399320273E-10   1.73451464582055E+00   0.00000000000000E+00
      4.17006079184327E-10   1.69399621856932E+00   0.00000000000000E+00
      4.99815295021192E-10   1.65978893176000E+00   0.00000000000000E+00
      5.99186354025431E-10   1.63361655403215E+00   0.00000000000000E+00
      7.18431624830517E-10   1.61633088888558E+00   0.00000000000000E+00
      8.61525949796620E-10   1.60812822596546E+00   0.00000000000000E+00
      1.03323913975594E-09   1.60884075456751E+00   0.00000000000000E+00
      1.23929496770713E-09   1.61819774607823E+00   0.00000000000000E+00
      1.48656196124856E-09   1.63601327894657E+00   0.00000000000000E+00
      1.78328235349827E-09   1.66231935528539E+00   0.00000000000000E+00
      2.00000000000000E-09   1.68285073009879E+00   0.00000000000000E+00
      2.42727736483959E-09   1.72734337280543E+00   0.00000000000000E+00
      2.94001020264709E-09   1.78283149610690E+00   0.00000000000000E+00
      3.55528960801609E-09   1.85145526654803E+00   0.00000000000000E+00
      4.00000000000000E-09   1.90156621259916E+00   0.00000000000000E+00
      4.88600234373136E-09   2.00713639658415E+00   0.00000000000000E+00
      5.94920515620900E-09   2.14174506371725E+00   0.00000000000000E+00
      6.00000000000000E-09   2.14808451963118E+00   0.00000000000000E+00
      7.27584337497316E-09   2.32806102353991E+00   0.00000000000000E+00
      8.00000000000000E-09   2.43983332385683E+00   0.00000000000000E+00
      9.53101204996780E-09   2.72499496863321E+00   0.00000000000000E+00
      1.00000000000000E-08   2.82286042404215E+00   0.00000000000000E+00
      1.18372144599614E-08   2.80852195214279E+00   0.00000000000000E+00
      1.20000000000000E-08   2.80771901272806E+00   0.00000000000000E+00
      1.40000000000000E-08   2.80679544413545E+00   0.00000000000000E+00
      1.60000000000000E-08   2.81347076608345E+00   0.00000000000000E+00
      1.80000000000000E-08   2.82378873179406E+00   0.00000000000000E+00
      2.00000000000000E-08   2.83540907213292E+00   0.00000000000000E+00
      2.45715774850110E-08   2.85693290132690E+00   0.00000000000000E+00
      3.00574704670243E-08   2.86939398015026E+00   0.00000000000000E+00
      3.66405420454402E-08   2.85904183318263E+00   0.00000000000000E+00
      4.45402279395393E-08   2.80791209453769E+00   0.00000000000000E+00
      5.00000000000000E-08   2.75595405158118E+00   0.00000000000000E+00
      6.13755476875027E-08   2.65822810954119E+00   0.00000000000000E+00
      7.50262049125059E-08   2.51196744669616E+00   0.00000000000000E+00
      9.14069935825097E-08   2.32668732260468E+00   0.00000000000000E+00
      1.11063939986514E-07   2.12227267812471E+00   0.00000000000000E+00
      1.34652275671320E-07   1.91502857887358E+00   0.00000000000000E+00
      1.50000000000000E-07   1.79868410334058E+00   0.00000000000000E+00
      1.83967203386120E-07   1.71156564795803E+00   0.00000000000000E+00
      2.24727847449464E-07   1.62482974153712E+00   0.00000000000000E+00
      2.73640620325477E-07   1.53187439814951E+00   0.00000000000000E+00
      3.32335947776692E-07   1.42521337114046E+00   0.00000000000000E+00
      4.02770340718150E-07   1.28973686704399E+00   0.00000000000000E+00
      4.50000000000000E-07   1.17649508812701E+00   0.00000000000000E+00
}
