DF-ISE text

Info {
  version   = 1.0
  type      = xyplot
  datasets  = [
    "time" "v(A)" "i(A,B)" ]
  functions = [
    Time Voltage Current ]
}

Data {
      0.00000000000000E+00   0.00000000000000E+00   0.00000000000000E+00
      0.00000000000000E+00   3.13872891622329E-09   0.00000000000000E+00
      0.00000000000000E+00   3.13872891622329E-09   0.00000000000000E+00
      0.00000000000000E+00   3.13872891622329E-09   0.00000000000000E+00
      5.00000000000000E-12   3.08442179651842E-01   0.00000000000000E+00
      1.10000000000000E-11   7.83437644439020E-01   0.00000000000000E+00
      1.46000000000000E-11   9.92535906042535E-01   0.00000000000000E+00
      1.89200000000000E-11   1.11672247271908E+00   0.00000000000000E+00
      2.41040000000000E-11   1.22636999774239E+00   0.00000000000000E+00
      3.03248000000000E-11   1.34525413537845E+00   0.00000000000000E+00
      3.77897600000000E-11   1.47741752832340E+00   0.00000000000000E+00
      4.67477120000000E-11   1.61925919912549E+00   0.00000000000000E+00
      5.74972544000000E-11   1.75855816986298E+00   0.00000000000000E+00
      7.03967052800000E-11   1.87846804170262E+00   0.00000000000000E+00
      8.58760463360000E-11   1.96648538162406E+00   0.00000000000000E+00
      1.04451255603200E-10   2.01840432312881E+00   0.00000000000000E+00
      1.26741506723840E-10   2.03598265217427E+00   0.00000000000000E+00
      1.53489808068608E-10   2.02404090888406E+00   0.00000000000000E+00
      1.85587769682330E-10   1.98962788014719E+00   0.00000000000000E+00
      2.24105323618795E-10   1.94107951737347E+00   0.00000000000000E+00
      2.70326388342555E-10   1.88622584919580E+00   0.00000000000000E+00
      3.25791666011065E-10   1.83141048413946E+00   0.00000000000000E+00
      3.92349999213278E-10   1.78130925109446E+00   0.00000000000000E+00
      4.72219999055934E-10   1.73913989012208E+00   0.00000000000000E+00
      5.68063998867121E-10   1.70682935864223E+00   0.00000000000000E+00
      6.83076798640545E-10   1.68521000110875E+00   0.00000000000000E+00
      8.21092158368654E-10   1.67434775534857E+00   0.00000000000000E+00
      9.86710590042385E-10   1.67392407675976E+00   0.00000000000000E+00
      1.18545270805086E-09   1.68355207773832E+00   0.00000000000000E+00
      1.42394324966103E-09   1.70299488375712E+00   0.00000000000000E+00
      1.71013189959324E-09   1.73231953607328E+00   0.00000000000000E+00
      2.00000000000000E-09   1.76531688187936E+00   0.00000000000000E+00
      2.41211165590238E-09   1.81629679528750E+00   0.00000000000000E+00
      2.90664564298523E-09   1.88052202433650E+00   0.00000000000000E+00
      3.50008642748465E-09   1.96094258453201E+00   0.00000000000000E+00
      4.00000000000000E-09   2.03075795644951E+00   0.00000000000000E+00
      4.85455472967917E-09   2.15885415611400E+00   0.00000000000000E+00
      5.88002040529417E-09   2.32762334477343E+00   0.00000000000000E+00
      6.00000000000000E-09   2.34768510702461E+00   0.00000000000000E+00
      7.23055881073801E-09   2.58789497264925E+00   0.00000000000000E+00
      8.00000000000000E-09   2.76171029278743E+00   0.00000000000000E+00
      9.77200468746273E-09   3.32589421252394E+00   0.00000000000000E+00
      1.00000000000000E-08   3.40795600921141E+00   0.00000000000000E+00
      1.20000000000000E-08   3.53226858934633E+00   0.00000000000000E+00
      1.40000000000000E-08   3.72267914736428E+00   0.00000000000000E+00
      1.60000000000000E-08   3.97948226495123E+00   0.00000000000000E+00
      1.80000000000000E-08   4.09465689731280E+00   0.00000000000000E+00
      2.00000000000000E-08   3.95657713028212E+00   0.00000000000000E+00
}
