DF-ISE text

Info {
  version   = 1.0
  type      = xyplot
  datasets  = [
    "time"
    "pplus4 OuterVoltage" "pplus4 InnerVoltage" "pplus4 QuasiFermiPotential" "pplus4 DisplacementCurrent" "pplus4 eCurrent"
    "pplus4 hCurrent" "pplus4 TotalCurrent" "pplus4 Charge" "pplus4 Temperature" "pplus4 lHeatFlux"
    "nplus1 OuterVoltage" "nplus1 InnerVoltage" "nplus1 QuasiFermiPotential" "nplus1 DisplacementCurrent" "nplus1 eCurrent"
    "nplus1 hCurrent" "nplus1 TotalCurrent" "nplus1 Charge" "nplus1 Temperature" "nplus1 lHeatFlux"
    "nplus2 OuterVoltage" "nplus2 InnerVoltage" "nplus2 QuasiFermiPotential" "nplus2 DisplacementCurrent" "nplus2 eCurrent"
    "nplus2 hCurrent" "nplus2 TotalCurrent" "nplus2 Charge" "nplus2 Temperature" "nplus2 lHeatFlux"
    "substrate OuterVoltage" "substrate InnerVoltage" "substrate QuasiFermiPotential" "substrate DisplacementCurrent" "substrate eCurrent"
    "substrate hCurrent" "substrate TotalCurrent" "substrate Charge" "substrate Temperature" "substrate lHeatFlux"
    "pplus1 OuterVoltage" "pplus1 InnerVoltage" "pplus1 QuasiFermiPotential" "pplus1 DisplacementCurrent" "pplus1 eCurrent"
    "pplus1 hCurrent" "pplus1 TotalCurrent" "pplus1 Charge" "pplus1 Temperature" "pplus1 lHeatFlux"
    "nplus3 OuterVoltage" "nplus3 InnerVoltage" "nplus3 QuasiFermiPotential" "nplus3 DisplacementCurrent" "nplus3 eCurrent"
    "nplus3 hCurrent" "nplus3 TotalCurrent" "nplus3 Charge" "nplus3 Temperature" "nplus3 lHeatFlux"
    "pplus2 OuterVoltage" "pplus2 InnerVoltage" "pplus2 QuasiFermiPotential" "pplus2 DisplacementCurrent" "pplus2 eCurrent"
    "pplus2 hCurrent" "pplus2 TotalCurrent" "pplus2 Charge" "pplus2 Temperature" "pplus2 lHeatFlux"
    "nplus4 OuterVoltage" "nplus4 InnerVoltage" "nplus4 QuasiFermiPotential" "nplus4 DisplacementCurrent" "nplus4 eCurrent"
    "nplus4 hCurrent" "nplus4 TotalCurrent" "nplus4 Charge" "nplus4 Temperature" "nplus4 lHeatFlux"
    "pplus3 OuterVoltage" "pplus3 InnerVoltage" "pplus3 QuasiFermiPotential" "pplus3 DisplacementCurrent" "pplus3 eCurrent"
    "pplus3 hCurrent" "pplus3 TotalCurrent" "pplus3 Charge" "pplus3 Temperature" "pplus3 lHeatFlux"
    "Tmin" "Tave" "Tmax" ]
  functions = [
    Time
    OuterVoltage InnerVoltage QuasiFermiPotential DisplacementCurrent eCurrent
    hCurrent TotalCurrent Charge Temperature lHeatFlux
    OuterVoltage InnerVoltage QuasiFermiPotential DisplacementCurrent eCurrent
    hCurrent TotalCurrent Charge Temperature lHeatFlux
    OuterVoltage InnerVoltage QuasiFermiPotential DisplacementCurrent eCurrent
    hCurrent TotalCurrent Charge Temperature lHeatFlux
    OuterVoltage InnerVoltage QuasiFermiPotential DisplacementCurrent eCurrent
    hCurrent TotalCurrent Charge Temperature lHeatFlux
    OuterVoltage InnerVoltage QuasiFermiPotential DisplacementCurrent eCurrent
    hCurrent TotalCurrent Charge Temperature lHeatFlux
    OuterVoltage InnerVoltage QuasiFermiPotential DisplacementCurrent eCurrent
    hCurrent TotalCurrent Charge Temperature lHeatFlux
    OuterVoltage InnerVoltage QuasiFermiPotential DisplacementCurrent eCurrent
    hCurrent TotalCurrent Charge Temperature lHeatFlux
    OuterVoltage InnerVoltage QuasiFermiPotential DisplacementCurrent eCurrent
    hCurrent TotalCurrent Charge Temperature lHeatFlux
    OuterVoltage InnerVoltage QuasiFermiPotential DisplacementCurrent eCurrent
    hCurrent TotalCurrent Charge Temperature lHeatFlux
    MinTemperature AveTemperature MaxTemperature ]
}

Data {
      0.00000000000000E+00
      0.00000000000000E+00   0.00000000000000E+00   0.00000000000000E+00   0.00000000000000E+00  -6.82869048882531E-28
     -7.50716495847777E-17  -7.50716495854606E-17  -8.72536425016296E-16   3.00000000000000E+02   0.00000000000000E+00
      0.00000000000000E+00   0.00000000000000E+00   0.00000000000000E+00   0.00000000000000E+00   3.87795265562131E-18
     -1.27712408707406E-20   3.86518141475057E-18   1.08183516626417E-14   3.00000000000000E+02   0.00000000000000E+00
      0.00000000000000E+00   0.00000000000000E+00   0.00000000000000E+00   0.00000000000000E+00  -3.83437648400872E-18
      1.33024713248230E-32  -3.83437648400871E-18   9.12969455333732E-17   3.00000000000000E+02   0.00000000000000E+00
      0.00000000000000E+00   0.00000000000000E+00   0.00000000000000E+00   0.00000000000000E+00  -2.04067188835465E-21
      3.10544005807462E-27  -2.04066878291459E-21  -3.17282617950515E-16   3.00000000000000E+02   0.00000000000000E+00
      0.00000000000000E+00   0.00000000000000E+00   0.00000000000000E+00   0.00000000000000E+00   1.83639462793480E-24
     -1.04258815531325E-16  -1.04258813694930E-16  -6.75204468000521E-15   3.00000000000000E+02   0.00000000000000E+00
      0.00000000000000E+00   0.00000000000000E+00   0.00000000000000E+00   0.00000000000000E+00   1.05184213627705E-18
     -1.80385317526971E-20   1.03380360452435E-18   1.07287744619031E-14   3.00000000000000E+02   0.00000000000000E+00
      0.00000000000000E+00   0.00000000000000E+00   0.00000000000000E+00   0.00000000000000E+00   1.24603489236609E-24
      1.04271586769199E-16   1.04271588015234E-16  -3.69364819319276E-15   3.00000000000000E+02   0.00000000000000E+00
      0.00000000000000E+00   0.00000000000000E+00   0.00000000000000E+00   0.00000000000000E+00  -1.09236585819747E-18
     -7.04803439400047E-32  -1.09236585819754E-18   1.59383622519895E-16   3.00000000000000E+02   0.00000000000000E+00
      0.00000000000000E+00   0.00000000000000E+00   0.00000000000000E+00   0.00000000000000E+00  -4.49116761940055E-25
      7.50896881106038E-17   7.50896876614870E-17  -9.59507860820636E-15   3.00000000000000E+02   0.00000000000000E+00
      3.00000000000000E+02   3.00000000000021E+02   3.00000000000000E+02
      0.00000000000000E+00
      3.13872891622329E-09   3.13872895983802E-09   0.00000000000000E+00   0.00000000000000E+00   1.65443241832773E-26
     -7.82006131532717E-17  -7.82006131367274E-17  -8.72536422975767E-16   3.00000000000000E+02   0.00000000000000E+00
      0.00000000000000E+00   0.00000000000000E+00   0.00000000000000E+00   0.00000000000000E+00   5.83858260754705E-17
      2.67732624304691E-23   5.83858528487330E-17   1.08183516422601E-14   3.00000000000000E+02   0.00000000000000E+00
      0.00000000000000E+00   0.00000000000000E+00   0.00000000000000E+00   0.00000000000000E+00  -5.95090937062060E-17
     -7.81397618971260E-32  -5.95090937062060E-17   9.12969455333733E-17   3.00000000000000E+02   0.00000000000000E+00
      0.00000000000000E+00   7.99430232797393E-29   0.00000000000000E+00   0.00000000000000E+00  -7.72283331092125E-21
     -3.92750216962027E-25  -7.72322606113821E-21  -3.17282618950353E-16   3.00000000000000E+02   0.00000000000000E+00
      3.13872891622329E-09   3.13872895983802E-09   0.00000000000000E+00   0.00000000000000E+00   9.94039739647426E-25
      1.81662437655053E-17   1.81662447595451E-17  -6.75204466738985E-15   3.00000000000000E+02   0.00000000000000E+00
      0.00000000000000E+00   0.00000000000000E+00   0.00000000000000E+00   0.00000000000000E+00   5.82776385632380E-17
      1.33447865530978E-21   5.82789730418933E-17   1.07287744416117E-14   3.00000000000000E+02   0.00000000000000E+00
      3.13872891622329E-09   3.13872895983802E-09   0.00000000000000E+00   0.00000000000000E+00   2.98029467677125E-25
     -1.81662517117055E-17  -1.81662514136760E-17  -3.69364818503732E-15   3.00000000000000E+02   0.00000000000000E+00
      0.00000000000000E+00   0.00000000000000E+00   0.00000000000000E+00   0.00000000000000E+00  -5.71736867242703E-17
     -3.88800867046142E-29  -5.71736867243091E-17   1.59383622445848E-16   3.00000000000000E+02   0.00000000000000E+00
      3.13872891622329E-09   3.13872895983802E-09   0.00000000000000E+00   0.00000000000000E+00   1.38276040452730E-24
      7.81992967282679E-17   7.81992981110282E-17  -9.59507858948534E-15   3.00000000000000E+02   0.00000000000000E+00
      3.00000000000000E+02   3.00000000000021E+02   3.00000000000000E+02
      0.00000000000000E+00
      3.13872891622329E-09   3.13872895983802E-09   0.00000000000000E+00   0.00000000000000E+00   1.37351852146740E-26
     -1.57277734194947E-17  -1.57277734057595E-17  -8.72536422975766E-16   3.00000000000000E+02   0.00000000000000E+00
      0.00000000000000E+00   0.00000000000000E+00   0.00000000000000E+00   0.00000000000000E+00   7.37377840220962E-17
     -3.35996900368640E-22   7.37374480251958E-17   1.08183516422601E-14   3.00000000000000E+02   0.00000000000000E+00
      0.00000000000000E+00   0.00000000000000E+00   0.00000000000000E+00   0.00000000000000E+00  -7.48896137386607E-17
     -3.51384350472792E-29  -7.48896137386958E-17   9.12969455333732E-17   3.00000000000000E+02   0.00000000000000E+00
      0.00000000000000E+00   3.99603743195196E-26   0.00000000000000E+00   0.00000000000000E+00  -1.89500860581031E-20
     -3.92610639565135E-25  -1.89504786687426E-20  -3.17282618950353E-16   3.00000000000000E+02   0.00000000000000E+00
      3.13872891622329E-09   3.13872895983802E-09   0.00000000000000E+00   0.00000000000000E+00   4.86071248987770E-25
     -3.41191589868240E-17  -3.41191585007527E-17  -6.75204466738985E-15   3.00000000000000E+02   0.00000000000000E+00
      0.00000000000000E+00   0.00000000000000E+00   0.00000000000000E+00   0.00000000000000E+00   5.83120453425847E-17
     -1.12141038021278E-21   5.83109239322044E-17   1.07287744416117E-14   3.00000000000000E+02   0.00000000000000E+00
      3.13872891622329E-09   3.13872895983802E-09   0.00000000000000E+00   0.00000000000000E+00   1.37602834418825E-24
      3.41195138089926E-17   3.41195151850210E-17  -3.69364818503732E-15   3.00000000000000E+02   0.00000000000000E+00
      0.00000000000000E+00   0.00000000000000E+00   0.00000000000000E+00   0.00000000000000E+00  -5.71714990785398E-17
     -9.40098399211398E-29  -5.71714990786338E-17   1.59383622445848E-16   3.00000000000000E+02   0.00000000000000E+00
      3.13872891622329E-09   3.13872895983802E-09   0.00000000000000E+00   0.00000000000000E+00   2.20775661978745E-25
      1.57289128819303E-17   1.57289131027060E-17  -9.59507858948534E-15   3.00000000000000E+02   0.00000000000000E+00
      3.00000000000000E+02   3.00000000000021E+02   3.00000000000000E+02
      5.00000000000000E-12
      3.08442179651842E-01   3.08442147016863E-01   0.00000000000000E+00   3.13897939565720E-08   1.14980300510881E-16
      1.63143503580664E-04   1.63174893374735E-04  -7.14128514049321E-16   3.00000000000000E+02   4.28179232456652E-07
      0.00000000000000E+00   4.46137251898281E-08   0.00000000000000E+00  -2.30682417066832E-08  -2.23045556980922E-04
     -1.83977172429180E-22  -2.23068625222629E-04   9.16384588119120E-15   3.00000000000000E+02   2.73546136632550E-07
      0.00000000000000E+00   2.16067066771697E-08   0.00000000000000E+00  -1.11698738970094E-08  -1.08022363629214E-04
     -8.35362759920377E-23  -1.08033533503111E-04   8.86414574541839E-17   3.00000000000000E+02   1.20872901668846E-07
      0.00000000000000E+00   2.45270666490470E-10   0.00000000000000E+00  -1.22632639237200E-06  -2.07259468923703E-11
     -6.21228161951956E-12  -1.22635333060051E-06  -3.23108539271902E-16   3.00000000000000E+02   0.00000000000000E+00
      3.08442179651842E-01   3.08442147255321E-01   0.00000000000000E+00   3.04587269182439E-08   1.07474755574593E-16
      1.61952146774705E-04   1.61982605501730E-04  -5.76624979897540E-15   3.00000000000000E+02   4.00527592043930E-07
      0.00000000000000E+00   2.16580036117318E-08   0.00000000000000E+00  -1.12007141989124E-08  -1.08278817948276E-04
     -7.71244782797272E-23  -1.08290018662475E-04   9.08193253426956E-15   3.00000000000000E+02   1.21354082394633E-07
      3.08442179651842E-01   3.08442145597442E-01   0.00000000000000E+00   3.20140189258290E-08   1.49506164108261E-16
      1.70239983944677E-04   1.70271997963752E-04  -3.01846677770589E-15   3.00000000000000E+02   4.25963314082539E-07
      0.00000000000000E+00   4.48762938996704E-08   0.00000000000000E+00  -2.32135814764009E-08  -2.24358255702518E-04
     -1.83295560555895E-22  -2.24381469283994E-04   1.45073830808274E-16   3.00000000000000E+02   2.88342691910319E-07
      3.08442179651842E-01   3.08442145737741E-01   0.00000000000000E+00   3.30776770156310E-08   1.80380894522281E-16
      1.69537425485395E-04   1.69570503162591E-04  -8.09033240726908E-15   3.00000000000000E+02   4.25314316745051E-07
      2.99999432813377E+02   2.99999999075484E+02   3.00000066010540E+02
      1.10000000000000E-11
      7.83437644439020E-01   7.83437573554791E-01   0.00000000000000E+00   3.06621866122032E-08   2.42734562700673E-10
      3.54390240994088E-04   3.54421145915263E-04  -3.92393408998082E-16   3.00000000000000E+02   1.60180806308792E-06
      0.00000000000000E+00   9.79311851024052E-08   0.00000000000000E+00  -2.29824693600290E-08  -4.89632943875111E-04
     -6.25949162672567E-18  -4.89655926344478E-04   4.80821106810547E-15   3.00000000000000E+02   1.03777299139420E-06
      0.00000000000000E+00   4.78249324531034E-08   0.00000000000000E+00  -1.12988043108624E-08  -2.39113363278414E-04
     -6.08634035638706E-21  -2.39124662082725E-04   8.53722771318937E-17   3.00000000000000E+02   4.59530440031205E-07
      0.00000000000000E+00   2.61619010529768E-10   0.00000000000000E+00  -1.30803344857684E-06  -4.74963879263456E-11
     -1.41075386786414E-11  -1.30809505250345E-06  -3.32042454718552E-16   3.00000000000000E+02  -2.93655277975101E-17
      7.83437644439020E-01   7.83437572520861E-01   0.00000000000000E+00   3.08790039080273E-08   2.19481068219322E-10
      3.59559700714130E-04   3.59590799199106E-04  -2.99596569893039E-15   3.00000000000000E+02   1.53841957089042E-06
      0.00000000000000E+00   4.79184544632754E-08   0.00000000000000E+00  -1.13214358359120E-08  -2.39580951008917E-04
     -1.91801131193148E-20  -2.39592272444753E-04   4.72780820114304E-15   3.00000000000000E+02   4.64633952913076E-07
      7.83437644439020E-01   7.83437570264571E-01   0.00000000000000E+00   3.12957354575891E-08   4.53476340451297E-10
      3.70840497144100E-04   3.70872246355898E-04  -1.42312891490795E-15   3.00000000000000E+02   1.61025415082113E-06
      0.00000000000000E+00   9.86638088006268E-08   0.00000000000000E+00  -2.31948355549966E-08  -4.93295849239326E-04
     -8.66464612892162E-18  -4.93319044074890E-04   1.24946362989299E-16   3.00000000000000E+02   1.09286158249348E-06
      7.83437644439020E-01   7.83437568815859E-01   0.00000000000000E+00   3.40938796798211E-08   5.27410305944785E-10
      3.78081187239096E-04   3.78115808529082E-04  -4.03353395652824E-15   3.00000000000000E+02   1.67450522326923E-06
      2.99998157417878E+02   2.99999997530437E+02   3.00000420945740E+02
      1.46000000000000E-11
      9.92535906042535E-01   9.92535816988420E-01   0.00000000000000E+00   2.42556256126110E-08   2.89804671793038E-08
      4.45217336155389E-04   4.45270572248181E-04  -2.28411507975983E-16   3.00000000000000E+02   2.49226321043923E-06
      0.00000000000000E+00   1.29668689823212E-07   0.00000000000000E+00  -2.28048219946193E-08  -6.48320644139741E-04
     -2.63616605259560E-17  -6.48343448961762E-04   2.25382781243769E-15   3.00000000000000E+02   1.66004510049570E-06
      0.00000000000000E+00   6.37664968479175E-08   0.00000000000000E+00  -1.14518129533542E-08  -3.18821032353642E-04
     -1.65545667337829E-20  -3.18832484166595E-04   8.33625219574282E-17   3.00000000000000E+02   7.36695480989268E-07
      0.00000000000000E+00   2.66126762451583E-10   0.00000000000000E+00  -1.33055103037804E-06  -6.38787552571074E-11
     -1.89029974524415E-11  -1.33063381213075E-06  -3.38690227385488E-16   3.00000000000000E+02  -6.75407139342733E-16
      9.92535906042535E-01   9.92535815855023E-01   0.00000000000000E+00   2.37527075954665E-08   2.60328117198139E-08
      4.50887773172275E-04   4.50937558691590E-04  -1.27658311204571E-15   3.00000000000000E+02   2.40309307316911E-06
      0.00000000000000E+00   6.38853375699622E-08   0.00000000000000E+00  -1.14745230895174E-08  -3.19415214526594E-04
     -5.65459961927519E-20  -3.19426689049684E-04   2.16899258756491E-15   3.00000000000000E+02   7.46745429766030E-07
      9.92535906042535E-01   9.92535802396195E-01   0.00000000000000E+00   3.86221297759958E-08   5.51989721297804E-08
      5.18137877060087E-04   5.18231698161993E-04  -5.80740127410850E-16   3.00000000000000E+02   2.60960532273794E-06
      0.00000000000000E+00   1.30773348880354E-07   0.00000000000000E+00  -2.30819071464036E-08  -6.53843662102573E-04
     -4.12135977510675E-17  -6.53866744009761E-04   1.14448947442786E-16   3.00000000000000E+02   1.74796931240033E-06
      9.92535906042535E-01   9.92535800570500E-01   0.00000000000000E+00   4.04834879079214E-08   6.49483916885643E-08
      5.27254739018570E-04   5.27360170898166E-04  -1.62427390788837E-15   3.00000000000000E+02   2.73630660575575E-06
      2.99997208628325E+02   2.99999996649722E+02   3.00000798353531E+02
      1.89200000000000E-11
      1.11672247271908E+00   1.11672236787698E+00   0.00000000000000E+00   1.75286254700821E-08   3.51874593335607E-07
      5.23841098296456E-04   5.24210501515262E-04  -1.70733525399356E-16   3.00000000000000E+02   3.72996391582002E-06
      0.00000000000000E+00   1.67424733384895E-07   0.00000000000000E+00  -2.26126291464248E-08  -8.37101055062545E-04
     -2.30336840950231E-15  -8.37123667693995E-04   1.38703146778045E-15   3.00000000000000E+02   2.64989282224780E-06
      0.00000000000000E+00   8.30381109643545E-08   0.00000000000000E+00  -1.15389216417952E-08  -4.15179015665146E-04
     -6.98991610463921E-19  -4.15190554586789E-04   8.09071991960462E-17   3.00000000000000E+02   1.18099023194153E-06
      0.00000000000000E+00   2.66858765141294E-10   0.00000000000000E+00  -1.33418551158932E-06  -8.36709549186238E-11
     -2.46419468138253E-11  -1.33429382449105E-06  -3.48969373589583E-16   3.00000000000000E+02  -5.57945028152692E-16
      1.11672247271908E+00   1.11672236690074E+00   0.00000000000000E+00   1.68593641749401E-08   3.23531392808819E-07
      5.28751323936956E-04   5.29091714693940E-04  -6.63406329695607E-16   3.00000000000000E+02   3.59644815654655E-06
      0.00000000000000E+00   8.32644491810315E-08   0.00000000000000E+00  -1.16077057228821E-08  -4.16310636327455E-04
     -3.65683714101887E-18  -4.16322244033181E-04   1.31307103594092E-15   3.00000000000000E+02   1.20157728019687E-06
      1.11672247271908E+00   1.11672232762743E+00   0.00000000000000E+00   4.55099579010542E-08   6.26124802777092E-07
      7.24786617036930E-04   7.25458251797608E-04  -3.16151313760530E-16   3.00000000000000E+02   4.29392085475751E-06
      0.00000000000000E+00   1.69277847916197E-07   0.00000000000000E+00  -2.30711299618567E-08  -8.46366168084685E-04
     -3.71841064594632E-15  -8.46389239218365E-04   1.04449466785790E-16   3.00000000000000E+02   2.79157430759660E-06
      1.11672247271908E+00   1.11672232519918E+00   0.00000000000000E+00   4.74817133340124E-08   7.39180958105926E-07
      7.36812868678570E-04   7.37599531350010E-04  -8.09089525370317E-16   3.00000000000000E+02   4.52899382178968E-06
      2.99995847183446E+02   2.99999996137213E+02   3.00001549342785E+02
      2.41040000000000E-11
      1.22636999774239E+00   1.22636987102672E+00   0.00000000000000E+00   2.02948328416167E-08   1.55405612340169E-06
      6.32003999631429E-04   6.33578350587672E-04  -1.49805071478343E-16   3.00000000000000E+02   5.46479999241933E-06
      0.00000000000000E+00   2.12508729490080E-07   0.00000000000000E+00  -2.25028551726632E-08  -1.06252113981452E-03
     -1.93001232309092E-13  -1.06254364286269E-03   1.09251168602342E-15   3.00000000000000E+02   4.19419479175015E-06
      0.00000000000000E+00   1.06416093480194E-07   0.00000000000000E+00  -1.16674647065789E-08  -5.32068800314857E-04
     -1.09001497573312E-16  -5.32080467779673E-04   7.78921069662232E-17   3.00000000000000E+02   1.88162690493386E-06
      0.00000000000000E+00   2.69632833483185E-10   0.00000000000000E+00  -1.34802487370271E-06  -1.07737210947533E-10
     -3.15555127469127E-11  -1.34816416642640E-06  -3.65354754656458E-16   3.00000000000000E+02  -3.05401489094105E-15
      1.22636999774239E+00   1.22636986954548E+00   0.00000000000000E+00   2.01657518550307E-08   1.44439849570614E-06
      6.39519969859305E-04   6.40984534106866E-04  -4.50052641194889E-16   3.00000000000000E+02   5.26611435789536E-06
      0.00000000000000E+00   1.06718976049922E-07   0.00000000000000E+00  -1.17063807708566E-08  -5.33583172190970E-04
     -4.25503174729029E-16  -5.33594878572167E-04   1.02658876816823E-15   3.00000000000000E+02   1.92284854698612E-06
      1.22636999774239E+00   1.22636980647108E+00   0.00000000000000E+00   4.21801793497366E-08   2.82170309594993E-06
      9.53492665330418E-04   9.56356548605717E-04  -2.18257370460119E-16   3.00000000000000E+02   6.91360768604158E-06
      0.00000000000000E+00   2.15252967200358E-07   0.00000000000000E+00  -2.29629244073777E-08  -1.07624187416229E-03
     -2.77187757771757E-13  -1.07626483736388E-03   9.30233774669484E-17   3.00000000000000E+02   4.42127576078431E-06
      1.22636999774239E+00   1.22636980275988E+00   0.00000000000000E+00   4.47878665423765E-08   3.31206281303576E-06
      9.71555706765006E-04   9.74912557444584E-04  -5.20542739949142E-16   3.00000000000000E+02   7.32890329720892E-06
      2.99993950933268E+02   2.99999997254256E+02   3.00002981720149E+02
      3.03248000000000E-11
      1.34525413537845E+00   1.34525398298834E+00   0.00000000000000E+00   1.98916782512000E-08   4.44008042429160E-06
      7.57490566854250E-04   7.61950538956793E-04  -1.37415441112125E-16   3.00000000000000E+02   7.84249314566707E-06
      0.00000000000000E+00   2.66215854752505E-07   0.00000000000000E+00  -2.23520481576894E-08  -1.33105691280639E-03
     -8.92458836986994E-12  -1.33107927377914E-03   9.39460217377034E-16   3.00000000000000E+02   6.55972526740506E-06
      0.00000000000000E+00   1.34826762599078E-07   0.00000000000000E+00  -1.18194166585389E-08  -6.74121993295566E-04
     -9.48683483365532E-15  -6.74133812721711E-04   7.41712250533160E-17   3.00000000000000E+02   2.97084624476009E-06
      0.00000000000000E+00   2.66678609019174E-10   0.00000000000000E+00  -1.33321697987908E-06  -1.36369841529117E-10
     -3.96930547873300E-11  -1.33339304277540E-06  -3.90992398839375E-16   3.00000000000000E+02  -5.78500897610947E-15
      1.34525413537845E+00   1.34525398085805E+00   0.00000000000000E+00   1.98020238267294E-08   4.15726018280127E-06
      7.68424950132945E-04   7.72602012339573E-04  -3.31601565232178E-16   3.00000000000000E+02   7.55548438654022E-06
      0.00000000000000E+00   1.35190149197135E-07   0.00000000000000E+00  -1.18495446919100E-08  -6.75938896691457E-04
     -2.78090530871896E-14  -6.75950746263958E-04   8.81674169972501E-16   3.00000000000000E+02   3.05025856135370E-06
      1.34525413537845E+00   1.34525388818002E+00   0.00000000000000E+00   4.26446905802515E-08   8.51725475590368E-06
      1.22743224425553E-03   1.23599214370201E-03  -1.58988269923717E-16   3.00000000000000E+02   1.07877104886646E-05
      0.00000000000000E+00   2.70140234704349E-07   0.00000000000000E+00  -2.28534254636462E-08  -1.35067830920761E-03
     -1.15591087412187E-11  -1.35070117419218E-03   7.90688916875574E-17   3.00000000000000E+02   6.91962694595842E-06
      1.34525413537845E+00   1.34525388284771E+00   0.00000000000000E+00   4.53291524737971E-08   9.92486098515837E-06
      1.25268351486375E-03   1.26265370500139E-03  -3.55806433412390E-16   3.00000000000000E+02   1.14843810304584E-05
      2.99991379500370E+02   3.00000002213251E+02   3.00005649985868E+02
      3.77897600000000E-11
      1.47741752832340E+00   1.47741734654247E+00   0.00000000000000E+00   1.90175276373734E-08   1.00038528514402E-05
      8.98881757488768E-04   9.08904627867845E-04  -1.28125495415469E-16   3.00000000000000E+02   1.10074265859177E-05
      0.00000000000000E+00   3.30229254934029E-07   0.00000000000000E+00  -2.22107845708539E-08  -1.65112382172002E-03
     -2.42303527130648E-10  -1.65114627480811E-03   8.49807643441725E-16   3.00000000000000E+02   1.01180342683721E-05
      0.00000000000000E+00   1.69236128487414E-07   0.00000000000000E+00  -1.19334211144552E-08  -8.46168708556804E-04
     -4.71957601634416E-13  -8.46180642449876E-04   6.95799380212044E-17   3.00000000000000E+02   4.64017254203925E-06
      0.00000000000000E+00   2.56137337829736E-10   0.00000000000000E+00  -1.28046827802721E-06  -1.69440117867695E-10
     -4.89701459879519E-11  -1.28068668829106E-06  -4.28861231100155E-16   3.00000000000000E+02  -1.08652452850787E-14
      1.47741752832340E+00   1.47741734368250E+00   0.00000000000000E+00   1.89074524828242E-08   9.41177779393009E-06
      9.13773820463877E-04   9.23204505710289E-04  -2.51113398152039E-16   3.00000000000000E+02   1.06050852988923E-05
      0.00000000000000E+00   1.69643730821410E-07   0.00000000000000E+00  -1.19539328226113E-08  -8.48206699297311E-04
     -1.08182437253688E-12  -8.48218654311958E-04   8.01612511349309E-16   3.00000000000000E+02   4.78693648430160E-06
      1.47741752832340E+00   1.47741721263811E+00   0.00000000000000E+00   4.36224094707864E-08   2.07123368888290E-05
      1.55767046201650E-03   1.57842642131480E-03  -1.15701451225390E-16   3.00000000000000E+02   1.62696796784066E-05
      0.00000000000000E+00   3.35842364371492E-07   0.00000000000000E+00  -2.28068929256506E-08  -1.67918872664132E-03
     -2.88208163466346E-10  -1.67921182174241E-03   6.18560078465854E-17   3.00000000000000E+02   1.06806229947569E-05
      1.47741752832340E+00   1.47741720522289E+00   0.00000000000000E+00   4.64101161249406E-08   2.39634034181131E-05
      1.59149271157348E-03   1.61550252510772E-03  -2.41521771878969E-16   3.00000000000000E+02   1.73812540131044E-05
      2.99987982951027E+02   3.00000015122900E+02   3.00010574969356E+02
      4.67477120000000E-11
      1.61925919912549E+00   1.61925898313058E+00   0.00000000000000E+00   1.84957053552594E-08   1.95954316423354E-05
      1.06036062017217E-03   1.07997454751986E-03  -1.20207102669984E-16   3.00000000000000E+02   1.51051351702038E-05
      0.00000000000000E+00   4.07263135837772E-07   0.00000000000000E+00  -2.22844857100426E-08  -2.03628946286163E-03
     -3.93166298235391E-09  -2.03631567901032E-03   7.98187198234336E-16   3.00000000000000E+02   1.53758048239211E-05
      0.00000000000000E+00   2.10052895502334E-07   0.00000000000000E+00  -1.18017634052732E-08  -1.05025266160636E-03
     -1.38921506647918E-11  -1.05026447726191E-03   6.40212751923400E-17   3.00000000000000E+02   7.15282129405111E-06
      0.00000000000000E+00   2.34227627466138E-10   0.00000000000000E+00  -1.17087331197093E-06  -2.05830212923872E-10
     -5.89968809255799E-11  -1.17113813906478E-06  -4.78881841308344E-16   3.00000000000000E+02  -2.00272899579017E-14
      1.61925919912549E+00   1.61925897953628E+00   0.00000000000000E+00   1.83140673219758E-08   1.84800447459456E-05
      1.07944767997438E-03   1.09794603878765E-03  -1.91405317207295E-16   3.00000000000000E+02   1.45555808263582E-05
      0.00000000000000E+00   2.10487306374805E-07   0.00000000000000E+00  -1.18148460901159E-08  -1.05242469114255E-03
     -2.58619632755450E-11  -1.05243653185061E-03   7.61604211300216E-16   3.00000000000000E+02   7.41315792616489E-06
      1.61925919912549E+00   1.61925880028317E+00   0.00000000000000E+00   4.42534004355849E-08   4.42464630147949E-05
      1.94992090736426E-03   1.99421162377949E-03  -8.17520479892198E-17   3.00000000000000E+02   2.36733408179584E-05
      0.00000000000000E+00   4.15451573930489E-07   0.00000000000000E+00  -2.30398554112982E-08  -2.07723044794074E-03
     -4.38194284975281E-09  -2.07725786973900E-03   4.11385490287034E-17   3.00000000000000E+02   1.62424861823661E-05
      1.61925919912549E+00   1.61925879006279E+00   0.00000000000000E+00   4.72311469370991E-08   5.08837266330914E-05
      1.99438252813389E-03   2.04531348591392E-03  -1.55867797085489E-16   3.00000000000000E+02   2.53656008892309E-05
      2.99983611396529E+02   3.00000043095389E+02   3.00019731952840E+02
      5.74972544000000E-11
      1.75855816986298E+00   1.75855791279603E+00   0.00000000000000E+00   1.85559404764795E-08   3.53032973361931E-05
      1.25001291662241E-03   1.28533476989908E-03  -1.12806060705845E-16   3.00000000000000E+02   2.02887547797741E-05
      0.00000000000000E+00   5.02081298744974E-07   0.00000000000000E+00  -2.28682069524865E-08  -2.51034419833737E-03
     -3.94272774051018E-08  -2.51040649382173E-03   7.65451697322791E-16   3.00000000000000E+02   2.30078205525553E-05
      0.00000000000000E+00   2.56238466810320E-07   0.00000000000000E+00  -1.11355633552831E-08  -1.28118094857853E-03
     -2.50485563038078E-10  -1.28119233462745E-03   5.76170309562066E-17   3.00000000000000E+02   1.08361042337399E-05
      0.00000000000000E+00   2.01746510150578E-10   0.00000000000000E+00  -1.00841980093280E-06  -2.43611617757528E-10
     -6.91365456955900E-11  -1.00873254909625E-06  -5.32421499198025E-16   3.00000000000000E+02  -3.71180271360522E-14
      1.75855816986298E+00   1.75855790856175E+00   0.00000000000000E+00   1.82593417804173E-08   3.33017158105185E-05
      1.27318618803458E-03   1.30650616318687E-03  -1.45013626641161E-16   3.00000000000000E+02   1.95544424704745E-05
      0.00000000000000E+00   2.56720292563363E-07   0.00000000000000E+00  -1.11526766289599E-08  -1.28358991713724E-03
     -3.93145601368350E-10  -1.28360146295947E-03   7.42388942827972E-16   3.00000000000000E+02   1.12799529753059E-05
      1.75855816986298E+00   1.75855767138809E+00   0.00000000000000E+00   4.43054478795194E-08   8.67211972970239E-05
      2.40560894927511E-03   2.49237445202002E-03  -5.44869967782361E-17   3.00000000000000E+02   3.31536346894816E-05
      0.00000000000000E+00   5.14185162206471E-07   0.00000000000000E+00  -2.38232420102277E-08  -2.57085994496614E-03